version 3
run Tictoc15-0-20240217-09:29:55-80325
attr configname Tictoc15
attr datetime 20240217-09:29:55
attr datetimef 20240217-092955
attr experiment Tictoc15
attr inifile omnetpp.ini
attr iterationvars ""
attr iterationvarsd ""
attr iterationvarsf ""
attr measurement ""
attr network Tictoc15
attr processid 80325
attr repetition 0
attr replication #0
attr resultdir results
attr runnumber 0
attr seedset 0
config record-eventlog true
config network Tictoc15
config record-eventlog true
config seed-0-mt 536570

vector 0 Tictoc15.tic[3] HopCount ETV
vector 1 Tictoc15.tic[2] HopCount ETV
vector 2 Tictoc15.tic[4] HopCount ETV
vector 3 Tictoc15.tic[5] HopCount ETV
vector 4 Tictoc15.tic[1] HopCount ETV
vector 5 Tictoc15.tic[0] HopCount ETV
0	30	2.9	29
0	106	10.5	13
0	312	31.1	29
0	322	32.1	6
0	510	50.9	5
0	512	51.1	1
0	554	55.3	13
0	558	55.7	3
0	590	58.9	30
0	626	62.5	9
0	828	82.7	13
0	870	86.9	2
0	940	93.9	5
0	1028	102.7	7
0	1134	113.3	49
0	1216	121.5	7
0	1244	124.3	27
0	1256	125.5	5
0	1362	136.1	9
0	1400	139.9	9
0	1502	150.1	20
0	1562	156.1	31
0	1594	159.3	5
0	1616	161.5	21
0	1738	173.7	42
0	1760	175.9	6
0	1796	179.5	14
0	1854	185.3	13
0	1942	194.1	2
0	2074	207.3	3
0	2204	220.3	2
0	2238	223.7	12
0	2266	226.5	17
0	2298	229.7	2
0	2320	231.9	11
0	2482	248.1	13
0	2648	264.7	12
0	2678	267.7	23
0	2712	271.1	5
0	2746	274.5	2
0	2784	278.3	5
0	2818	281.7	9
0	2876	287.5	17
0	2900	289.9	3
0	2934	293.3	12
0	3038	303.7	8
0	3094	309.3	33
0	3144	314.3	41
0	3198	319.7	11
0	3228	322.7	5
0	3256	325.5	8
0	3268	326.7	7
0	3390	338.9	12
0	3446	344.5	8
0	3504	350.3	21
0	3534	353.3	3
0	3570	356.9	3
0	3636	363.5	21
0	3736	373.5	2
0	3746	374.5	5
0	4004	400.3	24
0	4046	404.5	9
0	4100	409.9	5
0	4120	411.9	2
0	4172	417.1	5
0	4200	419.9	7
0	4224	422.3	3
0	4334	433.3	7
0	4352	435.1	3
0	4394	439.3	6
0	4474	447.3	7
0	4476	447.5	1
0	4512	451.1	19
0	4534	453.3	12
0	4554	455.3	19
0	4580	457.9	3
0	4638	463.7	1
0	4712	471.1	11
0	4784	478.3	10
0	4816	481.5	9
0	4870	486.9	11
0	4876	487.5	3
0	4888	488.7	6
0	4922	492.1	2
0	5042	504.1	47
0	5082	508.1	2
0	5138	513.7	2
0	5186	518.5	14
0	5206	520.5	7
0	5500	549.9	49
0	5508	550.7	2
0	5612	561.1	3
0	5618	561.7	3
0	5654	565.3	21
0	5660	565.9	2
0	5694	569.3	25
0	5728	572.7	3
0	5768	576.7	5
0	5788	578.7	1
0	5840	583.9	7
0	5928	592.7	3
0	6012	601.1	13
0	6038	603.7	5
0	6090	608.9	14
0	6094	609.3	1
0	6110	610.9	12
0	6196	619.5	12
0	6252	625.1	6
0	6272	627.1	7
0	6330	632.9	57
0	6346	634.5	15
0	6432	643.1	12
0	6442	644.1	6
0	6462	646.1	11
0	6504	650.3	14
0	6568	656.7	2
0	6572	657.1	3
0	6712	671.1	20
0	6760	675.9	39
0	6812	681.1	33
0	6950	694.9	8
0	7108	710.7	9
0	7150	714.9	8
0	7184	718.3	1
0	7282	728.1	12
0	7312	731.1	5
0	7384	738.3	12
0	7412	741.1	19
0	7638	763.7	2
0	7640	763.9	1
0	7656	765.5	2
0	7740	773.9	1
0	7780	777.9	27
0	7824	782.3	19
0	7954	795.3	1
0	8006	800.5	31
0	8058	805.7	3
0	8088	808.7	1
0	8192	819.1	2
0	8224	822.3	25
0	8276	827.5	1
0	8322	832.1	7
0	8338	833.7	5
0	8376	837.5	33
0	8424	842.3	1
0	8482	848.1	13
0	8602	860.1	63
0	8706	870.5	44
0	8774	877.3	11
0	8802	880.1	3
0	8842	884.1	25
0	8872	887.1	11
0	8944	894.3	58
0	8978	897.7	11
0	9072	907.1	4
0	9084	908.3	8
0	9114	911.3	3
0	9194	919.3	78
0	9268	926.7	7
0	9292	929.1	15
0	9310	930.9	8
0	9372	937.1	4
0	9416	941.5	19
0	9468	946.7	5
0	9588	958.7	8
0	9666	966.5	2
0	9780	977.9	19
0	9930	992.9	31
0	10018	1001.7	5
0	10056	1005.5	2
0	10060	1005.9	2
0	10286	1028.5	5
0	10290	1028.9	2
0	10328	1032.7	4
0	10426	1042.5	2
0	10578	1057.7	17
0	10588	1058.7	6
0	10782	1078.1	37
0	10830	1082.9	2
0	10928	1092.7	5
0	10984	1098.3	55
0	11032	1103.1	28
0	11208	1120.7	12
0	11226	1122.5	10
0	11302	1130.1	45
0	11314	1131.3	5
0	11468	1146.7	22
0	11490	1148.9	9
0	11558	1155.7	25
0	11590	1158.9	4
0	11642	1164.1	15
0	11730	1172.9	14
0	11762	1176.1	3
0	11868	1186.7	18
0	11974	1197.3	11
0	12016	1201.5	12
0	12104	1210.3	6
0	12160	1215.9	33
0	12300	1229.9	75
0	12316	1231.5	10
0	12442	1244.1	31
0	12480	1247.9	1
0	12504	1250.3	3
0	12534	1253.3	3
0	12616	1261.5	5
0	12666	1266.5	4
0	12758	1275.7	8
0	12828	1282.7	59
0	12848	1284.7	1
0	12864	1286.3	14
0	12890	1288.9	11
0	12974	1297.3	31
0	13036	1303.5	7
0	13130	1312.9	39
0	13188	1318.7	31
0	13358	1335.7	41
0	13448	1344.7	13
0	13462	1346.1	7
0	13478	1347.7	4
0	13552	1355.1	8
0	13594	1359.3	17
0	13714	1371.3	1
0	13762	1376.1	40
0	13770	1376.9	2
0	13802	1380.1	5
0	13934	1393.3	3
0	14004	1400.3	13
0	14062	1406.1	2
0	14086	1408.5	11
0	14114	1411.3	13
0	14148	1414.7	11
0	14182	1418.1	8
0	14240	1423.9	4
0	14260	1425.9	5
0	14302	1430.1	2
0	14352	1435.1	1
0	14390	1438.9	10
0	14522	1452.1	35
0	14612	1461.1	28
0	14692	1469.1	9
0	14746	1474.5	3
0	14798	1479.7	1
0	14892	1489.1	30
0	15040	1503.9	13
0	15100	1509.9	21
0	15116	1511.5	11
0	15138	1513.7	3
0	15156	1515.5	5
0	15192	1519.1	21
0	15218	1521.7	2
0	15398	1539.7	22
0	15434	1543.3	7
0	15456	1545.5	6
0	15486	1548.5	7
0	15500	1549.9	7
0	15522	1552.1	1
0	15596	1559.5	11
0	15654	1565.3	14
0	15716	1571.5	20
0	15776	1577.5	5
0	15814	1581.3	24
0	15854	1585.3	11
0	15866	1586.5	1
0	15910	1590.9	32
0	16096	1609.5	10
0	16136	1613.5	2
0	16230	1622.9	9
0	16310	1630.9	5
0	16358	1635.7	2
0	16432	1643.1	40
0	16538	1653.7	3
0	16542	1654.1	3
0	16682	1668.1	26
0	16742	1674.1	10
0	16814	1681.3	33
0	16828	1682.7	10
0	16912	1691.1	9
0	16972	1697.1	25
0	17116	1711.5	11
0	17134	1713.3	1
0	17250	1724.9	3
0	17550	1754.9	2
0	17556	1755.5	2
0	17618	1761.7	3
0	17620	1761.9	1
0	17756	1775.5	21
0	17826	1782.5	36
0	17846	1784.5	2
0	17924	1792.3	15
0	17968	1796.7	37
0	18058	1805.7	2
0	18092	1809.1	27
0	18122	1812.1	19
0	18176	1817.5	10
0	18228	1822.7	13
0	18326	1832.5	13
0	18336	1833.5	6
0	18372	1837.1	7
0	18456	1845.5	4
0	18520	1851.9	7
0	18634	1863.3	35
0	18648	1864.7	3
0	18702	1870.1	7
0	18834	1883.3	8
0	18864	1886.3	16
0	18906	1890.5	2
0	18966	1896.5	3
0	19020	1901.9	33
0	19060	1905.9	37
0	19108	1910.7	13
0	19146	1914.5	19
0	19152	1915.1	2
0	19176	1917.5	16
0	19226	1922.5	12
0	19260	1925.9	6
0	19356	1935.5	7
0	19378	1937.7	4
0	19442	1944.1	33
0	19498	1949.7	29
0	19636	1963.5	23
0	19706	1970.5	31
0	19710	1970.9	3
0	19858	1985.7	14
0	19884	1988.3	9
0	19922	1992.1	10
0	19936	1993.5	4
0	20020	2001.9	23
0	20072	2007.1	17
0	20124	2012.3	33
0	20204	2020.3	2
0	20304	2030.3	28
0	20332	2033.1	5
0	20434	2043.3	9
0	20448	2044.7	12
0	20470	2046.9	2
0	20650	2064.9	13
0	20724	2072.3	25
0	20862	2086.1	9
0	20912	2091.1	8
0	20938	2093.7	9
0	21164	2116.3	9
0	21180	2117.9	15
0	21308	2130.7	1
0	21346	2134.5	1
0	21376	2137.5	20
0	21434	2143.3	6
0	21464	2146.3	20
0	21482	2148.1	12
0	21522	2152.1	28
0	21606	2160.5	13
0	21656	2165.5	7
0	21666	2166.5	7
0	21734	2173.3	7
0	21834	2183.3	9
0	21904	2190.3	5
0	21966	2196.5	37
0	21994	2199.3	5
0	22098	2209.7	12
0	22124	2212.3	7
0	22134	2213.3	8
0	22242	2224.1	1
0	22274	2227.3	7
0	22290	2228.9	3
0	22456	2245.5	8
0	22516	2251.5	22
0	22544	2254.3	2
0	22656	2265.5	25
0	22864	2286.3	15
0	22924	2292.3	9
0	23030	2302.9	15
0	23040	2303.9	9
0	23098	2309.7	9
0	23162	2316.1	2
0	23248	2324.7	44
0	23280	2327.9	19
0	23342	2334.1	27
0	23414	2341.3	13
0	23468	2346.7	4
0	23580	2357.9	11
0	23622	2362.1	5
0	23658	2365.7	33
0	23716	2371.5	15
0	23760	2375.9	7
0	23860	2385.9	4
0	23942	2394.1	28
0	24032	2403.1	5
0	24112	2411.1	1
0	24148	2414.7	5
0	24180	2417.9	4
0	24192	2419.1	3
0	24302	2430.1	19
0	24406	2440.5	50
0	24456	2445.5	6
0	24738	2473.7	2
0	24776	2477.5	34
0	24796	2479.5	2
0	24916	2491.5	14
0	24966	2496.5	34
0	25074	2507.3	14
0	25102	2510.1	22
0	25116	2511.5	2
0	25138	2513.7	9
0	25186	2518.5	44
0	25188	2518.7	1
0	25228	2522.7	11
0	25240	2523.9	5
0	25266	2526.5	6
0	25282	2528.1	9
0	25394	2539.3	1
0	25632	2563.1	16
0	25652	2565.1	15
0	25660	2565.9	7
0	25690	2568.9	3
0	25698	2569.7	6
0	25712	2571.1	5
0	25772	2577.1	11
0	25854	2585.3	24
0	25876	2587.5	1
0	25912	2591.1	13
0	25962	2596.1	23
0	26182	2618.1	3
0	26374	2637.3	13
0	26392	2639.1	7
0	26402	2640.1	4
0	26512	2651.1	27
0	26568	2656.7	13
0	26576	2657.5	7
0	26616	2661.5	7
0	26668	2666.7	2
0	26706	2670.5	36
0	26718	2671.7	7
0	26772	2677.1	20
0	26790	2678.9	13
0	26840	2683.9	13
0	26906	2690.5	4
0	26944	2694.3	4
0	26996	2699.5	7
0	27106	2710.5	13
0	27166	2716.5	11
0	27190	2718.9	3
0	27220	2721.9	2
0	27252	2725.1	7
0	27294	2729.3	29
0	27500	2749.9	14
0	27548	2754.7	9
0	27628	2762.7	22
0	27758	2775.7	19
0	27776	2777.5	1
0	27806	2780.5	5
0	27856	2785.5	9
0	28002	2800.1	3
0	28042	2804.1	18
0	28110	2810.9	2
0	28122	2812.1	11
0	28170	2816.9	6
0	28182	2818.1	8
0	28268	2826.7	43
0	28356	2835.5	28
0	28362	2836.1	5
0	28412	2841.1	1
0	28460	2845.9	9
0	28492	2849.1	5
0	28554	2855.3	8
0	28594	2859.3	11
0	28776	2877.5	32
0	28834	2883.3	3
0	28872	2887.1	33
0	28958	2895.7	12
0	29012	2901.1	27
0	29054	2905.3	29
0	29074	2907.3	1
0	29180	2917.9	34
0	29310	2930.9	15
0	29424	2942.3	19
0	29478	2947.7	2
0	29568	2956.7	1
0	29596	2959.5	5
0	29638	2963.7	27
0	29650	2964.9	9
0	29668	2966.7	7
0	29686	2968.5	13
0	29762	2976.1	33
0	29820	2981.9	13
0	29872	2987.1	5
0	30034	3003.3	21
0	30190	3018.9	10
0	30206	3020.5	13
0	30222	3022.1	14
0	30230	3022.9	6
0	30274	3027.3	7
0	30378	3037.7	1
0	30402	3040.1	4
0	30544	3054.3	2
0	30586	3058.5	12
0	30712	3071.1	17
0	30738	3073.7	5
0	30778	3077.7	13
0	30868	3086.7	8
0	30918	3091.7	24
0	30946	3094.5	27
0	30966	3096.5	16
0	31004	3100.3	19
0	31164	3116.3	1
0	31216	3121.5	27
0	31252	3125.1	4
0	31304	3130.3	8
0	31386	3138.5	28
0	31446	3144.5	9
0	31652	3165.1	39
0	31686	3168.5	1
0	31712	3171.1	5
0	31724	3172.3	10
0	31756	3175.5	17
0	31772	3177.1	9
0	31882	3188.1	49
0	31906	3190.5	15
0	31946	3194.5	4
0	31962	3196.1	4
0	32038	3203.7	7
0	32124	3212.3	6
0	32170	3216.9	9
0	32244	3224.3	21
0	32338	3233.7	9
0	32418	3241.7	45
0	32458	3245.7	7
0	32480	3247.9	3
0	32496	3249.5	6
0	32514	3251.3	3
0	32520	3251.9	2
0	32594	3259.3	43
0	32630	3262.9	23
0	32996	3299.5	5
0	33052	3305.1	19
0	33070	3306.9	7
0	33120	3311.9	26
0	33138	3313.7	2
0	33192	3319.1	5
0	33242	3324.1	7
0	33264	3326.3	9
0	33320	3331.9	3
0	33342	3334.1	1
0	33422	3342.1	2
0	33502	3350.1	14
0	33534	3353.3	5
0	33662	3366.1	11
0	33780	3377.9	8
0	33982	3398.1	6
0	34078	3407.7	9
0	34220	3421.9	54
0	34330	3432.9	12
0	34340	3433.9	5
0	34488	3448.7	10
0	34554	3455.3	21
0	34578	3457.7	23
0	34614	3461.3	14
0	34692	3469.1	4
0	34732	3473.1	19
0	34752	3475.1	14
0	34784	3478.3	17
0	34886	3488.5	22
0	34918	3491.7	10
0	34950	3494.9	20
0	34984	3498.3	5
0	35062	3506.1	3
0	35238	3523.7	3
0	35328	3532.7	35
0	35348	3534.7	13
0	35468	3546.7	3
0	35510	3550.9	5
0	35524	3552.3	4
0	35602	3560.1	13
0	35636	3563.5	33
0	35676	3567.5	22
0	35750	3574.9	20
0	35754	3575.3	3
0	35904	3590.3	32
0	36104	3610.3	29
0	36132	3613.1	1
0	36154	3615.3	18
0	36166	3616.5	3
0	36176	3617.5	5
0	36218	3621.7	11
0	36234	3623.3	1
0	36268	3626.7	3
0	36274	3627.3	2
0	36326	3632.5	17
0	36380	3637.9	7
0	36416	3641.5	3
0	36476	3647.5	2
0	36558	3655.7	5
0	36576	3657.5	5
0	36664	3666.3	33
0	36696	3669.5	11
0	36752	3675.1	11
0	36758	3675.7	5
0	36766	3676.5	3
0	36832	3683.1	21
0	36862	3686.1	5
0	36976	3697.5	7
0	36980	3697.9	2
0	36988	3698.7	2
0	37062	3706.1	45
0	37076	3707.5	8
0	37142	3714.1	3
0	37214	3721.3	16
0	37260	3725.9	10
0	37310	3730.9	43
0	37352	3735.1	15
0	37356	3735.5	3
0	37508	3750.7	8
0	37596	3759.5	13
0	37648	3764.7	21
0	37678	3767.7	26
0	37702	3770.1	18
0	37766	3776.5	28
0	37790	3778.9	8
0	37792	3779.1	1
0	37864	3786.3	17
0	37876	3787.5	7
0	37972	3797.1	1
0	38018	3801.7	21
0	38090	3808.9	63
0	38134	3813.3	1
0	38170	3816.9	25
0	38236	3823.5	3
0	38246	3824.5	4
0	38322	3832.1	31
0	38362	3836.1	15
0	38382	3838.1	16
0	38424	3842.3	10
0	38498	3849.7	3
0	38558	3855.7	9
0	38690	3868.9	24
0	38702	3870.1	11
0	38738	3873.7	19
0	38754	3875.3	11
0	38822	3882.1	24
0	38900	3889.9	31
0	38906	3890.5	1
0	38912	3891.1	4
0	39064	3906.3	8
0	39184	3918.3	7
0	39290	3928.9	6
0	39356	3935.5	10
0	39464	3946.3	14
0	39554	3955.3	17
0	39632	3963.1	10
0	39740	3973.9	7
0	39762	3976.1	4
0	39904	3990.3	55
0	40000	3999.9	14
0	40068	4006.7	31
0	40118	4011.7	12
0	40144	4014.3	9
0	40198	4019.7	9
0	40208	4020.7	5
0	40472	4047.1	8
0	40488	4048.7	9
0	40526	4052.5	7
0	40542	4054.1	1
0	40592	4059.1	4
0	40594	4059.3	1
0	40616	4061.5	5
0	40642	4064.1	3
0	40714	4071.3	32
0	40780	4077.9	28
0	40830	4082.9	1
0	40850	4084.9	8
0	40864	4086.3	6
0	40884	4088.3	18
0	40894	4089.3	2
0	40942	4094.1	1
0	41092	4109.1	25
0	41250	4124.9	65
0	41262	4126.1	8
0	41324	4132.3	22
0	41384	4138.3	3
0	41432	4143.1	12
0	41470	4146.9	8
0	41514	4151.3	42
0	41604	4160.3	40
0	41632	4163.1	3
0	41700	4169.9	28
0	41702	4170.1	1
0	41718	4171.7	8
0	41730	4172.9	7
0	41826	4182.5	3
0	41852	4185.1	21
0	41994	4199.3	29
0	42014	4201.3	12
0	42050	4204.9	11
0	42052	4205.1	1
0	42098	4209.7	7
0	42126	4212.5	10
0	42152	4215.1	3
0	42202	4220.1	3
0	42222	4222.1	14
0	42262	4226.1	9
0	42394	4239.3	2
0	42440	4243.9	4
0	42466	4246.5	9
0	42520	4251.9	5
0	42528	4252.7	5
0	42530	4252.9	1
0	42574	4257.3	5
0	42622	4262.1	4
0	42700	4269.9	15
0	42724	4272.3	9
0	42770	4276.9	39
0	42804	4280.3	23
0	42840	4283.9	1
0	42850	4284.9	3
0	42950	4294.9	2
0	42976	4297.5	7
0	43024	4302.3	12
0	43078	4307.7	31
0	43104	4310.3	21
0	43118	4311.7	7
0	43158	4315.7	4
0	43240	4323.9	2
0	43292	4329.1	5
0	43304	4330.3	9
0	43340	4333.9	7
0	43364	4336.3	23
0	43406	4340.5	28
0	43488	4348.7	55
0	43528	4352.7	3
0	43578	4357.7	11
0	43632	4363.1	31
0	43660	4365.9	17
0	43728	4372.7	14
0	43746	4374.5	16
0	43860	4385.9	5
0	43968	4396.7	9
0	44076	4407.5	21
0	44140	4413.9	10
0	44160	4415.9	4
0	44246	4424.5	23
0	44404	4440.3	35
0	44446	4444.5	18
0	44456	4445.5	6
0	44480	4447.9	6
0	44638	4463.7	3
0	44674	4467.3	20
0	44718	4471.7	2
0	44784	4478.3	4
0	44868	4486.7	11
0	44884	4488.3	11
0	44898	4489.7	9
0	44906	4490.5	2
0	44936	4493.5	11
0	44958	4495.7	10
0	45100	4509.9	11
0	45126	4512.5	2
0	45230	4522.9	13
0	45324	4532.3	52
0	45356	4535.5	22
0	45394	4539.3	37
0	45440	4543.9	4
0	45530	4552.9	53
0	45588	4558.7	21
0	45622	4562.1	19
0	45690	4568.9	39
0	45804	4580.3	5
0	45818	4581.7	10
0	45860	4585.9	11
0	45960	4595.9	15
0	45992	4599.1	14
0	46020	4601.9	2
0	46174	4617.3	9
0	46234	4623.3	32
0	46310	4630.9	1
0	46462	4646.1	5
0	46480	4647.9	5
0	46512	4651.1	2
0	46514	4651.3	1
0	46532	4653.1	9
0	46618	4661.7	3
0	46670	4666.9	34
0	46708	4670.7	27
0	46768	4676.7	5
0	46774	4677.3	3
0	46870	4686.9	6
0	46922	4692.1	3
0	46996	4699.5	19
0	47074	4707.3	33
0	47142	4714.1	29
0	47214	4721.3	24
0	47254	4725.3	3
0	47378	4737.7	12
0	47394	4739.3	12
0	47450	4744.9	23
0	47514	4751.3	15
0	47596	4759.5	6
0	47618	4761.7	9
0	47672	4767.1	17
0	47840	4783.9	39
0	47848	4784.7	4
0	47888	4788.7	38
0	47932	4793.1	4
0	47960	4795.9	22
0	48030	4802.9	15
0	48158	4815.7	30
0	48216	4821.5	4
0	48274	4827.3	15
0	48396	4839.5	4
0	48402	4840.1	2
0	48428	4842.7	22
0	48454	4845.3	20
0	48540	4853.9	2
0	48546	4854.5	2
0	48564	4856.3	14
0	48598	4859.7	3
0	48716	4871.5	38
0	48752	4875.1	35
0	48824	4882.3	9
0	48884	4888.3	37
0	48896	4889.5	4
0	48950	4894.9	11
0	49006	4900.5	11
0	49040	4903.9	4
0	49084	4908.3	10
0	49258	4925.7	5
0	49330	4932.9	19
0	49372	4937.1	5
0	49396	4939.5	4
0	49406	4940.5	3
0	49474	4947.3	29
0	49556	4955.5	17
0	49668	4966.7	67
0	49752	4975.1	17
0	49758	4975.7	4
0	49886	4988.5	10
0	49922	4992.1	1
0	49998	4999.7	19
0	50002	5000.1	3
0	50014	5001.3	4
0	50092	5009.1	6
0	50182	5018.1	43
0	50366	5036.5	13
0	50386	5038.5	1
0	50428	5042.7	3
0	50514	5051.3	11
0	50528	5052.7	3
0	50610	5060.9	3
0	50648	5064.7	29
0	50736	5073.5	7
0	50814	5081.3	3
0	50942	5094.1	1
0	51000	5099.9	3
0	51134	5113.3	43
0	51136	5113.5	1
0	51152	5115.1	14
0	51204	5120.3	5
0	51258	5125.7	10
0	51408	5140.7	34
0	51434	5143.3	2
0	51448	5144.7	13
0	51484	5148.3	6
0	51626	5162.5	39
0	51800	5179.9	4
0	51864	5186.3	17
0	51872	5187.1	2
0	51892	5189.1	19
0	51914	5191.3	13
0	52006	5200.5	7
0	52114	5211.3	22
0	52126	5212.5	7
0	52176	5217.5	2
0	52212	5221.1	15
0	52288	5228.7	6
0	52350	5234.9	1
0	52444	5244.3	18
0	52520	5251.9	17
0	52558	5255.7	9
0	52608	5260.7	1
0	52644	5264.3	5
0	52670	5266.9	5
0	52742	5274.1	2
0	52752	5275.1	3
0	52810	5280.9	10
0	52818	5281.7	2
0	52830	5282.9	8
0	52930	5292.9	3
0	52960	5295.9	25
0	52980	5297.9	7
0	53086	5308.5	14
0	53200	5319.9	15
0	53218	5321.7	1
0	53226	5322.5	2
0	53256	5325.5	5
0	53296	5329.5	1
0	53306	5330.5	3
0	53332	5333.1	17
0	53338	5333.7	5
0	53356	5335.5	1
0	53424	5342.3	29
0	53456	5345.5	8
0	53542	5354.1	10
0	53568	5356.7	17
0	53684	5368.3	53
0	53718	5371.7	7
0	53780	5377.9	6
0	53836	5383.5	20
0	53882	5388.1	18
0	53924	5392.3	2
0	53970	5396.9	35
0	54038	5403.7	22
0	54078	5407.7	18
0	54170	5416.9	14
0	54216	5421.5	5
0	54246	5424.5	7
0	54260	5425.9	1
0	54340	5433.9	57
0	54348	5434.7	6
0	54360	5435.9	6
0	54562	5456.1	26
0	54608	5460.7	4
0	54684	5468.3	5
0	54724	5472.3	6
0	54748	5474.7	15
0	54776	5477.5	25
0	54926	5492.5	23
0	54954	5495.3	9
0	54958	5495.7	3
0	55004	5500.3	11
0	55194	5519.3	18
0	55220	5521.9	11
0	55330	5532.9	16
0	55376	5537.5	2
0	55476	5547.5	9
0	55512	5551.1	33
0	55596	5559.5	3
0	55658	5565.7	12
0	55758	5575.7	2
0	55842	5584.1	30
0	55900	5589.9	33
0	55930	5592.9	5
0	56022	5602.1	8
0	56058	5605.7	11
0	56080	5607.9	16
0	56084	5608.3	2
0	56096	5609.5	10
0	56118	5611.7	9
0	56184	5618.3	2
0	56198	5619.7	6
0	56212	5621.1	6
0	56258	5625.7	5
0	56282	5628.1	3
0	56422	5642.1	4
0	56494	5649.3	4
0	56542	5654.1	5
0	56558	5655.7	3
0	56632	5663.1	31
0	56678	5667.7	11
0	56698	5669.7	18
0	56742	5674.1	3
0	56786	5678.5	11
0	56824	5682.3	2
0	56854	5685.3	8
0	56920	5691.9	2
0	56956	5695.5	29
0	57046	5704.5	13
0	57090	5708.9	21
0	57192	5719.1	21
0	57314	5731.3	13
0	57404	5740.3	7
0	57440	5743.9	28
0	57502	5750.1	25
0	57538	5753.7	7
0	57814	5781.3	6
0	57850	5784.9	12
0	57918	5791.7	37
0	57936	5793.5	2
0	57982	5798.1	4
0	57992	5799.1	1
0	58000	5799.9	7
0	58038	5803.7	17
0	58214	5821.3	7
0	58244	5824.3	14
0	58292	5829.1	6
0	58366	5836.5	6
0	58394	5839.3	12
0	58410	5840.9	9
0	58434	5843.3	3
0	58468	5846.7	25
0	58478	5847.7	4
0	58500	5849.9	5
0	58544	5854.3	40
0	58552	5855.1	2
0	58730	5872.9	8
0	58794	5879.3	26
0	58884	5888.3	33
0	58938	5893.7	11
0	59004	5900.3	13
0	59036	5903.5	25
0	59096	5909.5	18
0	59110	5910.9	4
0	59172	5917.1	5
0	59240	5923.9	25
0	59336	5933.5	4
0	59374	5937.3	11
0	59388	5938.7	4
0	59424	5942.3	1
0	59538	5953.7	2
0	59710	5970.9	16
0	59778	5977.7	27
0	59804	5980.3	22
0	59842	5984.1	4
0	59918	5991.7	27
0	59984	5998.3	39
0	60046	6004.5	9
0	60162	6016.1	10
0	60186	6018.5	8
0	60222	6022.1	29
0	60316	6031.5	5
0	60386	6038.5	49
0	60584	6058.3	6
0	60788	6078.7	6
0	60832	6083.1	10
0	60896	6089.5	44
0	60906	6090.5	5
0	60924	6092.3	16
0	61064	6106.3	8
0	61108	6110.7	4
0	61128	6112.7	4
0	61168	6116.7	33
0	61246	6124.5	9
0	61266	6126.5	16
0	61354	6135.3	13
0	61398	6139.7	13
0	61422	6142.1	14
0	61440	6143.9	6
0	61514	6151.3	20
0	61524	6152.3	4
0	61668	6166.7	4
0	61754	6175.3	15
0	61782	6178.1	2
0	61800	6179.9	9
0	61844	6184.3	36
0	61896	6189.5	23
0	61930	6192.9	12
0	61964	6196.3	5
0	62046	6204.5	1
0	62142	6214.1	16
0	62206	6220.5	17
0	62268	6226.7	24
0	62316	6231.5	4
0	62338	6233.7	20
0	62440	6243.9	25
0	62456	6245.5	9
0	62518	6251.7	11
0	62548	6254.7	2
0	62682	6268.1	45
0	63052	6305.1	4
0	63142	6314.1	2
0	63168	6316.7	1
0	63208	6320.7	2
0	63240	6323.9	17
0	63274	6327.3	2
0	63326	6332.5	29
0	63570	6356.9	1
0	63584	6358.3	8
0	63670	6366.9	11
0	63776	6377.5	16
0	63804	6380.3	13
0	63832	6383.1	19
0	63910	6390.9	4
0	63948	6394.7	5
0	63982	6398.1	32
0	64002	6400.1	17
0	64066	6406.5	45
0	64088	6408.7	11
0	64132	6413.1	40
0	64162	6416.1	9
0	64236	6423.5	5
0	64274	6427.3	22
0	64556	6455.5	2
0	64628	6462.7	2
0	64676	6467.5	43
0	64784	6478.3	24
0	64928	6492.7	2
0	65044	6504.3	6
0	65104	6510.3	15
0	65176	6517.5	7
0	65216	6521.5	26
0	65242	6524.1	9
0	65270	6526.9	21
0	65380	6537.9	17
0	65446	6544.5	3
0	65566	6556.5	9
0	65576	6557.5	2
0	65726	6572.5	29
0	65736	6573.5	1
0	65758	6575.7	9
0	65824	6582.3	2
0	65830	6582.9	2
0	65914	6591.3	16
0	65934	6593.3	19
0	65976	6597.5	8
0	66030	6602.9	23
0	66090	6608.9	9
0	66098	6609.7	4
0	66118	6611.7	17
0	66148	6614.7	3
0	66162	6616.1	6
0	66192	6619.1	7
0	66294	6629.3	4
0	66444	6644.3	10
0	66458	6645.7	8
0	66470	6646.9	4
0	66508	6650.7	5
0	66524	6652.3	9
0	66576	6657.5	31
0	66656	6665.5	2
0	66658	6665.7	1
0	66748	6674.7	31
0	66788	6678.7	7
0	66810	6680.9	14
0	66944	6694.3	21
0	67076	6707.5	23
0	67114	6711.3	11
0	67210	6720.9	36
0	67228	6722.7	16
0	67254	6725.3	3
0	67288	6728.7	33
0	67326	6732.5	10
0	67366	6736.5	7
0	67408	6740.7	9
0	67502	6750.1	4
0	67560	6755.9	5
0	67598	6759.7	1
0	67722	6772.1	5
0	67744	6774.3	1
0	67760	6775.9	1
0	67802	6780.1	25
0	67826	6782.5	22
0	67842	6784.1	3
0	67872	6787.1	11
0	67968	6796.7	1
0	68148	6814.7	6
0	68254	6825.3	11
0	68286	6828.5	14
0	68346	6834.5	2
0	68418	6841.7	6
0	68478	6847.7	10
0	68520	6851.9	5
0	68606	6860.5	55
0	68636	6863.5	5
0	68658	6865.7	3
0	68674	6867.3	13
0	68676	6867.5	1
0	68720	6871.9	1
0	68750	6874.9	6
0	68788	6878.7	2
0	68792	6879.1	2
0	68798	6879.7	2
0	68878	6887.7	6
0	68918	6891.7	24
0	68944	6894.3	20
0	69198	6919.7	54
0	69222	6922.1	8
0	69326	6932.5	15
0	69374	6937.3	23
0	69436	6943.5	11
0	69472	6947.1	1
0	69516	6951.5	21
0	69524	6952.3	1
0	69564	6956.3	5
0	69722	6972.1	17
0	69766	6976.5	2
0	69788	6978.7	6
0	69886	6988.5	6
0	69956	6995.5	7
0	70048	7004.7	26
0	70060	7005.9	10
0	70096	7009.5	13
0	70140	7013.9	12
0	70148	7014.7	5
0	70220	7021.9	9
0	70310	7030.9	50
0	70326	7032.5	2
0	70382	7038.1	12
0	70390	7038.9	6
0	70504	7050.3	52
0	70524	7052.3	9
0	70556	7055.5	13
0	70574	7057.3	8
0	70686	7068.5	1
0	70746	7074.5	15
0	70800	7079.9	26
0	70826	7082.5	2
0	70872	7087.1	7
0	70896	7089.5	14
0	70916	7091.5	12
0	70968	7096.7	2
0	71174	7117.3	45
0	71184	7118.3	7
0	71224	7122.3	4
0	71248	7124.7	16
0	71472	7147.1	21
0	71524	7152.3	21
0	71550	7154.9	5
0	71580	7157.9	7
0	71654	7165.3	21
0	71688	7168.7	1
0	71714	7171.3	6
0	71730	7172.9	13
0	71766	7176.5	2
0	71786	7178.5	13
0	71822	7182.1	8
0	71826	7182.5	1
0	71838	7183.7	4
0	71860	7185.9	4
0	71932	7193.1	22
0	71990	7198.9	1
0	72060	7205.9	1
0	72162	7216.1	16
0	72208	7220.7	5
0	72254	7225.3	23
0	72260	7225.9	5
0	72312	7231.1	24
0	72328	7232.7	15
0	72372	7237.1	43
0	72412	7241.1	3
0	72598	7259.7	8
0	72620	7261.9	16
0	72662	7266.1	8
0	72754	7275.3	29
0	72794	7279.3	11
0	72876	7287.5	35
0	72900	7289.9	16
0	72916	7291.5	8
0	72960	7295.9	3
0	72976	7297.5	12
0	73012	7301.1	18
0	73030	7302.9	4
0	73140	7313.9	35
0	73156	7315.5	14
0	73164	7316.3	6
0	73176	7317.5	7
0	73214	7321.3	4
0	73296	7329.5	17
0	73388	7338.7	7
0	73454	7345.3	4
0	73526	7352.5	13
0	73666	7366.5	2
0	73722	7372.1	4
0	73786	7378.5	13
0	73832	7383.1	24
0	73884	7388.3	43
0	73886	7388.5	1
0	73966	7396.5	1
0	74184	7418.3	41
0	74236	7423.5	1
0	74326	7432.5	17
0	74378	7437.7	14
0	74456	7445.5	19
0	74520	7451.9	27
0	74528	7452.7	7
0	74560	7455.9	6
0	74576	7457.5	11
0	74592	7459.1	4
0	74640	7463.9	1
0	74768	7476.7	9
0	74796	7479.5	7
0	74844	7484.3	33
0	74882	7488.1	9
0	74930	7492.9	25
0	74980	7497.9	7
0	74996	7499.5	2
0	75076	7507.5	7
0	75110	7510.9	2
0	75122	7512.1	4
0	75160	7515.9	36
0	75194	7519.3	16
0	75260	7525.9	19
0	75328	7532.7	16
0	75338	7533.7	9
0	75462	7546.1	31
0	75510	7550.9	10
0	75542	7554.1	29
0	75616	7561.5	62
0	75636	7563.5	9
0	75650	7564.9	12
0	75812	7581.1	2
0	75886	7588.5	9
0	75922	7592.1	6
0	76042	7604.1	14
0	76084	7608.3	5
0	76102	7610.1	4
0	76130	7612.9	7
0	76322	7632.1	3
0	76496	7649.5	11
0	76536	7653.5	34
0	76636	7663.5	14
0	76666	7666.5	2
0	76766	7676.5	17
0	76840	7683.9	19
0	76858	7685.7	5
0	76892	7689.1	17
0	76904	7690.3	9
0	76994	7699.3	5
0	77020	7701.9	2
0	77054	7705.3	6
0	77100	7709.9	6
0	77124	7712.3	22
0	77162	7716.1	17
0	77222	7722.1	35
0	77244	7724.3	4
0	77382	7738.1	6
0	77418	7741.7	11
0	77532	7753.1	31
0	77566	7756.5	7
0	77622	7762.1	21
0	77712	7771.1	18
0	77754	7775.3	11
0	77822	7782.1	5
0	77842	7784.1	4
0	77870	7786.9	5
0	78032	7803.1	6
0	78040	7803.9	3
0	78184	7818.3	7
0	78206	7820.5	10
0	78520	7851.9	9
0	78528	7852.7	2
0	78564	7856.3	7
0	78572	7857.1	7
0	78578	7857.7	4
0	78676	7867.5	6
0	78764	7876.3	25
0	78832	7883.1	7
0	79192	7919.1	19
0	79230	7922.9	4
0	79272	7927.1	1
0	79290	7928.9	14
0	79410	7940.9	34
0	79428	7942.7	5
0	79472	7947.1	25
0	79520	7951.9	21
0	79556	7955.5	4
0	79580	7957.9	7
0	79584	7958.3	2
0	79628	7962.7	9
0	79724	7972.3	11
0	79816	7981.5	47
0	79900	7989.9	33
0	80014	8001.3	16
0	80058	8005.7	38
0	80158	8015.7	14
0	80320	8031.9	27
0	80368	8036.7	8
0	80522	8052.1	11
0	80618	8061.7	24
0	80636	8063.5	9
0	80674	8067.3	24
0	80748	8074.7	9
0	80798	8079.7	38
0	80814	8081.3	6
0	80898	8089.7	3
0	80900	8089.9	1
0	80984	8098.3	11
0	81206	8120.5	16
0	81228	8122.7	10
0	81278	8127.7	4
0	81386	8138.5	7
0	81458	8145.7	9
0	81568	8156.7	4
0	81822	8182.1	11
0	81864	8186.3	24
0	81990	8198.9	1
0	82022	8202.1	17
0	82162	8216.1	3
0	82172	8217.1	8
0	82226	8222.5	16
0	82286	8228.5	20
0	82338	8233.7	13
0	82370	8236.9	3
0	82416	8241.5	13
0	82446	8244.5	2
0	82482	8248.1	1
0	82502	8250.1	7
0	82598	8259.7	20
0	82630	8262.9	1
0	82656	8265.5	9
0	82730	8272.9	1
0	82752	8275.1	3
0	82814	8281.3	5
0	82860	8285.9	4
0	82880	8287.9	2
0	82882	8288.1	1
0	82928	8292.7	2
0	82946	8294.5	11
0	82968	8296.7	13
0	83000	8299.9	16
0	83150	8314.9	12
0	83266	8326.5	24
0	83498	8349.7	2
0	83658	8365.7	4
0	83672	8367.1	3
0	83728	8372.7	45
0	83858	8385.7	52
0	83928	8392.7	9
0	84022	8402.1	1
0	84036	8403.5	13
0	84134	8413.3	9
0	84172	8417.1	12
0	84196	8419.5	11
0	84230	8422.9	33
0	84314	8431.3	22
0	84396	8439.5	20
0	84404	8440.3	5
0	84518	8451.7	23
0	84520	8451.9	1
0	84552	8455.1	19
0	84642	8464.1	5
0	84656	8465.5	11
0	84676	8467.5	5
0	84694	8469.3	8
0	84734	8473.3	6
0	84766	8476.5	7
0	84884	8488.3	11
0	84906	8490.5	10
0	84936	8493.5	21
0	84940	8493.9	3
0	84994	8499.3	30
0	85026	8502.5	2
0	85036	8503.5	9
0	85094	8509.3	51
0	85108	8510.7	2
0	85128	8512.7	4
0	85160	8515.9	1
0	85228	8522.7	7
0	85256	8525.5	13
0	85408	8540.7	5
0	85424	8542.3	12
0	85656	8565.5	11
0	85674	8567.3	5
0	85726	8572.5	15
0	85810	8580.9	4
0	85850	8584.9	13
0	85946	8594.5	40
0	85950	8594.9	2
0	86006	8600.5	17
0	86070	8606.9	5
0	86152	8615.1	13
0	86190	8618.9	2
0	86226	8622.5	14
0	86278	8627.7	9
0	86418	8641.7	27
0	86468	8646.7	10
0	86546	8654.5	12
0	86564	8656.3	17
0	86592	8659.1	19
0	86640	8663.9	23
0	86660	8665.9	3
0	86738	8673.7	5
0	86810	8680.9	9
0	86862	8686.1	11
0	86988	8698.7	17
0	86996	8699.5	7
0	87002	8700.1	4
0	87052	8705.1	37
0	87082	8708.1	12
0	87122	8712.1	38
0	87142	8714.1	5
0	87162	8716.1	8
0	87236	8723.5	15
0	87318	8731.7	1
0	87358	8735.7	3
0	87384	8738.3	14
0	87474	8747.3	16
0	87516	8751.5	23
0	87576	8757.5	5
0	87640	8763.9	35
0	87662	8766.1	20
0	87696	8769.5	6
0	87740	8773.9	5
0	87762	8776.1	5
0	87778	8777.7	4
0	87822	8782.1	4
0	87860	8785.9	3
0	87904	8790.3	9
0	87918	8791.7	11
0	88072	8807.1	25
0	88098	8809.7	16
0	88108	8810.7	7
0	88202	8820.1	73
0	88218	8821.7	7
0	88254	8825.3	4
0	88266	8826.5	8
0	88324	8832.3	2
0	88434	8843.3	47
0	88482	8848.1	5
0	88534	8853.3	21
0	88626	8862.5	6
0	88868	8886.7	5
0	88922	8892.1	2
0	88936	8893.5	2
0	88978	8897.7	1
0	88998	8899.7	14
0	89046	8904.5	17
0	89066	8906.5	3
0	89148	8914.7	3
0	89178	8917.7	19
0	89250	8924.9	3
0	89316	8931.5	19
0	89332	8933.1	4
0	89398	8939.7	4
0	89418	8941.7	4
0	89480	8947.9	5
0	89516	8951.5	3
0	89548	8954.7	2
0	89584	8958.3	15
0	89602	8960.1	11
0	89728	8972.7	14
0	89778	8977.7	14
0	89794	8979.3	15
0	89806	8980.5	10
0	89840	8983.9	1
0	90040	9003.9	4
0	90064	9006.3	17
0	90118	9011.7	11
0	90148	9014.7	7
0	90254	9025.3	2
0	90326	9032.5	36
0	90378	9037.7	4
0	90472	9047.1	28
0	90508	9050.7	21
0	90518	9051.7	8
0	90544	9054.3	2
0	90666	9066.5	16
0	90744	9074.3	7
0	90774	9077.3	10
0	90852	9085.1	6
0	90920	9091.9	60
0	90976	9097.5	4
0	91000	9099.9	7
0	91036	9103.5	11
0	91058	9105.7	3
0	91084	9108.3	20
0	91100	9109.9	2
0	91220	9121.9	6
0	91242	9124.1	9
0	91304	9130.3	6
0	91342	9134.1	3
0	91442	9144.1	5
0	91474	9147.3	3
0	91508	9150.7	24
0	91604	9160.3	22
0	91692	9169.1	15
0	91734	9173.3	2
0	91738	9173.7	2
0	91828	9182.7	10
0	91842	9184.1	13
0	91862	9186.1	9
0	91936	9193.5	28
0	91958	9195.7	5
0	92010	9200.9	2
0	92100	9209.9	17
0	92152	9215.1	1
0	92260	9225.9	10
0	92382	9238.1	17
0	92542	9254.1	21
0	92594	9259.3	12
0	92676	9267.5	58
0	92750	9274.9	14
0	92760	9275.9	9
0	92844	9284.3	18
0	92882	9288.1	16
0	92902	9290.1	13
0	92994	9299.3	61
0	93074	9307.3	12
0	93120	9311.9	15
0	93142	9314.1	8
0	93228	9322.7	4
0	93234	9323.3	5
0	93274	9327.3	2
0	93362	9336.1	8
0	93422	9342.1	27
0	93480	9347.9	9
0	93510	9350.9	23
0	93608	9360.7	32
0	93652	9365.1	6
0	93882	9388.1	22
0	93912	9391.1	3
0	93922	9392.1	8
0	93962	9396.1	31
0	94050	9404.9	3
0	94076	9407.5	21
0	94154	9415.3	8
0	94260	9425.9	2
0	94272	9427.1	10
0	94284	9428.3	1
0	94340	9433.9	5
0	94352	9435.1	11
0	94404	9440.3	45
0	94438	9443.7	2
0	94496	9449.5	14
0	94630	9462.9	11
0	94654	9465.3	10
0	94684	9468.3	7
0	94708	9470.7	4
0	94734	9473.3	25
0	94796	9479.5	13
0	94860	9485.9	33
0	94896	9489.5	3
0	95012	9501.1	26
0	95018	9501.7	2
0	95030	9502.9	3
0	95084	9508.3	4
0	95128	9512.7	15
0	95210	9520.9	17
0	95236	9523.5	22
0	95316	9531.5	68
0	95422	9542.1	7
0	95462	9546.1	8
0	95558	9555.7	28
0	95560	9555.9	1
0	95582	9558.1	17
0	95612	9561.1	14
0	95666	9566.5	8
0	95704	9570.3	6
0	95718	9571.7	1
0	95798	9579.7	49
0	95812	9581.1	1
0	95816	9581.5	1
0	95856	9585.5	12
0	95862	9586.1	4
0	95918	9591.7	52
0	96008	9600.7	11
0	96054	9605.3	16
0	96126	9612.5	34
0	96192	9619.1	13
0	96224	9622.3	4
0	96246	9624.5	7
0	96276	9627.5	1
0	96288	9628.7	4
0	96310	9630.9	7
0	96344	9634.3	13
0	96354	9635.3	4
0	96386	9638.5	2
0	96402	9640.1	14
0	96456	9645.5	2
0	96480	9647.9	5
0	96586	9658.5	2
0	96680	9667.9	24
0	96860	9685.9	44
0	96886	9688.5	3
0	96926	9692.5	5
0	96954	9695.3	24
0	96986	9698.5	17
0	97052	9705.1	43
0	97082	9708.1	9
0	97124	9712.3	6
0	97182	9718.1	30
0	97214	9721.3	31
0	97232	9723.1	6
0	97244	9724.3	9
0	97250	9724.9	4
0	97262	9726.1	8
0	97300	9729.9	10
0	97318	9731.7	8
0	97364	9736.3	44
0	97394	9739.3	28
0	97410	9740.9	7
0	97460	9745.9	11
0	97540	9753.9	8
0	97588	9758.7	1
0	97624	9762.3	4
0	97672	9767.1	11
0	97718	9771.7	5
0	97754	9775.3	26
0	97820	9781.9	25
0	97916	9791.5	38
0	97928	9792.7	10
0	98012	9801.1	9
0	98032	9803.1	7
0	98194	9819.3	9
0	98204	9820.3	5
0	98258	9825.7	19
0	98278	9827.7	8
0	98298	9829.7	9
0	98336	9833.5	19
0	98358	9835.7	5
0	98362	9836.1	2
0	98440	9843.9	12
0	98576	9857.5	2
0	98724	9872.3	6
0	98746	9874.5	1
0	98768	9876.7	2
0	98788	9878.7	5
0	98832	9883.1	31
0	98926	9892.5	11
0	98974	9897.3	10